H2 hf/6-31g**
SP        RHF                                                         6-31G(d,p)
Number of atoms                            I                2
Info1-9                                    I   N=           9
          10           9           0           0           0         111
           1           1           2
Charge                                     I                0
Multiplicity                               I                1
Number of electrons                        I                2
Number of alpha electrons                  I                1
Number of beta electrons                   I                1
Number of basis functions                  I               10
Number of independent functions            I               10
Number of point charges in /Mol/           I                0
Number of translation vectors              I                0
Atomic numbers                             I   N=           2
           1           1
Nuclear charges                            R   N=           2
  1.00000000E+00  1.00000000E+00
Current cartesian coordinates              R   N=           6
  0.00000000E+00  0.00000000E+00  7.01088395E-01  8.58585659E-17  0.00000000E+00
 -7.01088395E-01
Force Field                                I                0
Int Atom Types                             I   N=           2
           0           0
MM charges                                 R   N=           2
  0.00000000E+00  0.00000000E+00
Integer atomic weights                     I   N=           2
           1           1
Real atomic weights                        R   N=           2
  1.00782504E+00  1.00782504E+00
Atom fragment info                         I   N=           2
           0           0
Atom residue num                           I   N=           2
           0           0
Nuclear spins                              I   N=           2
           1           1
Nuclear ZEff                               R   N=           2
 -1.00000000E+00 -1.00000000E+00
Nuclear ZNuc                               R   N=           2
  1.00000000E+00  1.00000000E+00
Nuclear QMom                               R   N=           2
  0.00000000E+00  0.00000000E+00
Nuclear GFac                               R   N=           2
  2.79284600E+00  2.79284600E+00
MicOpt                                     I   N=           2
          -1          -1
Number of contracted shells                I                6
Number of primitive shells                 I               10
Pure/Cartesian d shells                    I                1
Pure/Cartesian f shells                    I                0
Highest angular momentum                   I                1
Largest degree of contraction              I                3
Shell types                                I   N=           6
           0           0           1           0           0           1
Number of primitives per shell             I   N=           6
           3           1           1           3           1           1
Shell to atom map                          I   N=           6
           1           1           1           2           2           2
Primitive exponents                        R   N=          10
  1.87311370E+01  2.82539436E+00  6.40121692E-01  1.61277759E-01  1.10000000E+00
  1.87311370E+01  2.82539436E+00  6.40121692E-01  1.61277759E-01  1.10000000E+00
Contraction coefficients                   R   N=          10
  3.34946043E-02  2.34726953E-01  8.13757326E-01  1.00000000E+00  1.00000000E+00
  3.34946043E-02  2.34726953E-01  8.13757326E-01  1.00000000E+00  1.00000000E+00
Coordinates of each shell                  R   N=          18
  0.00000000E+00  0.00000000E+00  7.01088395E-01  0.00000000E+00  0.00000000E+00
  7.01088395E-01  0.00000000E+00  0.00000000E+00  7.01088395E-01  8.58585659E-17
  0.00000000E+00 -7.01088395E-01  8.58585659E-17  0.00000000E+00 -7.01088395E-01
  8.58585659E-17  0.00000000E+00 -7.01088395E-01
Constraint Structure                       R   N=           6
  0.00000000E+00  0.00000000E+00  7.01088395E-01  8.58585659E-17  0.00000000E+00
 -7.01088395E-01
Num ILSW                                   I              100
ILSW                                       I   N=         100
           0           1           0           0           2           0
           0           0           0           0           0          -1
           0           0           0           0           0           0
           0           0           0           0           0           0
           1           0           0           0           0           0
           0           0      100000           0          -1           0
           0           0           0           0           0           0
           0           0           0           1           0           0
           0           0           1           0           0           0
           0           0           4          41           0           0
           0           0           0           0           0           0
           0           0           0           2           0           0
           0           0           0           0           0           0
           0           0           0           0           0           0
           0           0           0           0           0           0
           0           0           0           0           0           0
           0           0           0           0
Num RLSW                                   I               41
RLSW                                       R   N=          41
  1.00000000E+00  1.00000000E+00  1.00000000E+00  1.00000000E+00  1.00000000E+00
  0.00000000E+00  0.00000000E+00  1.00000000E+00  0.00000000E+00  0.00000000E+00
  0.00000000E+00  0.00000000E+00  1.00000000E+00  0.00000000E+00  0.00000000E+00
  0.00000000E+00  0.00000000E+00  1.00000000E+00  0.00000000E+00  0.00000000E+00
  0.00000000E+00  0.00000000E+00  1.00000000E+00  0.00000000E+00  0.00000000E+00
  0.00000000E+00  0.00000000E+00  1.00000000E+00  0.00000000E+00  0.00000000E+00
  0.00000000E+00  0.00000000E+00  1.00000000E+00  0.00000000E+00  0.00000000E+00
  0.00000000E+00  0.00000000E+00  0.00000000E+00  1.00000000E+00  1.00000000E+00
  0.00000000E+00
MxBond                                     I                1
NBond                                      I   N=           2
           1           1
IBond                                      I   N=           2
           2           1
RBond                                      R   N=           2
  1.00000000E+00  1.00000000E+00
Virial Ratio                               R      2.004332011529928E+00
SCF Energy                                 R     -1.131269839274158E+00
Total Energy                               R     -1.131269839274158E+00
RMS Density                                R      7.920151912518047E-11
External E-field                           R   N=          35
  0.00000000E+00  0.00000000E+00  0.00000000E+00  0.00000000E+00  0.00000000E+00
  0.00000000E+00  0.00000000E+00  0.00000000E+00  0.00000000E+00  0.00000000E+00
  0.00000000E+00  0.00000000E+00  0.00000000E+00  0.00000000E+00  0.00000000E+00
  0.00000000E+00  0.00000000E+00  0.00000000E+00  0.00000000E+00  0.00000000E+00
  0.00000000E+00  0.00000000E+00  0.00000000E+00  0.00000000E+00  0.00000000E+00
  0.00000000E+00  0.00000000E+00  0.00000000E+00  0.00000000E+00  0.00000000E+00
  0.00000000E+00  0.00000000E+00  0.00000000E+00  0.00000000E+00  0.00000000E+00
IOpCl                                      I                0
IROHF                                      I                0
Alpha Orbital Energies                     R   N=          10
 -5.94305291E-01  2.39021247E-01  7.72013889E-01  1.30880023E+00  1.95925779E+00
  1.95925779E+00  2.70232657E+00  2.92881109E+00  2.92881109E+00  4.52430606E+00
Alpha MO coefficients                      R   N=         100
  3.18091635E-01  2.75667317E-01  0.00000000E+00  0.00000000E+00 -1.82673092E-02
  3.18091635E-01  2.75667317E-01  0.00000000E+00  0.00000000E+00  1.82673092E-02
  1.20610573E-01  1.71555924E+00  0.00000000E+00  0.00000000E+00 -2.33213720E-03
 -1.20610573E-01 -1.71555924E+00  0.00000000E+00  0.00000000E+00 -2.33213720E-03
  7.46449205E-01 -6.77423516E-01  0.00000000E+00  0.00000000E+00 -3.60414459E-02
  7.46449205E-01 -6.77423516E-01  0.00000000E+00  0.00000000E+00  3.60414459E-02
 -8.82907136E-01  1.39170113E+00  0.00000000E+00  0.00000000E+00 -2.80427504E-01
  8.82907136E-01 -1.39170113E+00  0.00000000E+00  0.00000000E+00 -2.80427504E-01
  0.00000000E+00  0.00000000E+00  0.00000000E+00  6.11044308E-01  0.00000000E+00
  0.00000000E+00  0.00000000E+00  0.00000000E+00  6.11044308E-01  0.00000000E+00
  0.00000000E+00  0.00000000E+00  6.11044308E-01  0.00000000E+00  0.00000000E+00
  0.00000000E+00  0.00000000E+00  6.11044308E-01  0.00000000E+00  0.00000000E+00
  3.85942275E-01 -1.86498197E-01  0.00000000E+00  0.00000000E+00  6.47068860E-01
  3.85942275E-01 -1.86498197E-01  0.00000000E+00  0.00000000E+00 -6.47068860E-01
  0.00000000E+00  0.00000000E+00  8.69818953E-01  0.00000000E+00  0.00000000E+00
  0.00000000E+00  0.00000000E+00 -8.69818953E-01  0.00000000E+00  0.00000000E+00
  0.00000000E+00  0.00000000E+00  0.00000000E+00  8.69818953E-01  0.00000000E+00
  0.00000000E+00  0.00000000E+00  0.00000000E+00 -8.69818953E-01  0.00000000E+00
 -1.43736928E+00 -1.63759657E-01  0.00000000E+00  0.00000000E+00  1.57315907E+00
  1.43736928E+00  1.63759657E-01  0.00000000E+00  0.00000000E+00  1.57315907E+00
Total SCF Density                          R   N=          55
  2.02364576E-01  1.75374935E-01  1.51984939E-01 -1.77900713E-19 -1.54173851E-19
  1.25115430E-36 -1.77900713E-19 -1.54173851E-19  7.66111057E-53  1.25115430E-36
 -1.16213565E-02 -1.00714002E-02  1.02164502E-20  1.02164502E-20  6.67389174E-04
  2.02364576E-01  1.75374935E-01 -1.77900713E-19 -1.77900713E-19 -1.16213565E-02
  2.02364576E-01  1.75374935E-01  1.51984939E-01 -1.54173851E-19 -1.54173851E-19
 -1.00714002E-02  1.75374935E-01  1.51984939E-01  1.77900713E-19  1.54173851E-19
 -1.25115430E-36 -7.66111057E-53 -1.02164502E-20  1.77900713E-19  1.54173851E-19
  1.25115430E-36  1.77900713E-19  1.54173851E-19 -7.66111057E-53 -1.25115430E-36
 -1.02164502E-20  1.77900713E-19  1.54173851E-19  7.66111057E-53  1.25115430E-36
  1.16213565E-02  1.00714002E-02 -1.02164502E-20 -1.02164502E-20 -6.67389174E-04
  1.16213565E-02  1.00714002E-02  1.02164502E-20  1.02164502E-20  6.67389174E-04
Mulliken Charges                           R   N=           2
 -1.11022302E-16 -1.11022302E-16
ONIOM Charges                              I   N=          16
           0           0           0           0           0           0
           0           0           0           0           0           0
           0           0           0           0
ONIOM Multiplicities                       I   N=          16
           1           0           0           0           0           0
           0           0           0           0           0           0
           0           0           0           0
Atom Layers                                I   N=           2
           1           1
Atom Modifiers                             I   N=           2
           0           0
Force Field                                I                0
Int Atom Modified Types                    I   N=           2
           0           0
Link Atoms                                 I   N=           2
           0           0
Atom Modified MM Charges                   R   N=           2
  0.00000000E+00  0.00000000E+00
Link Distances                             R   N=           8
  0.00000000E+00  0.00000000E+00  0.00000000E+00  0.00000000E+00  0.00000000E+00
  0.00000000E+00  0.00000000E+00  0.00000000E+00
Cartesian Gradient                         R   N=           6
  0.00000000E+00  0.00000000E+00  0.00000000E+00  0.00000000E+00  0.00000000E+00
  0.00000000E+00
Dipole Moment                              R   N=           3
 -2.46519033E-32 -2.40741243E-35 -2.77555756E-17
Quadrupole Moment                          R   N=           6
 -1.34032837E-01 -1.34032837E-01  2.68065674E-01 -3.61771368E-35 -2.16980348E-17
  5.84679583E-19
QEq coupling tensors                       R   N=          12
  1.75985670E-01  0.00000000E+00  1.75985670E-01  4.11200601E-17  0.00000000E+00
 -3.51971340E-01  1.75985670E-01  0.00000000E+00  1.75985670E-01  1.67934188E-17
  0.00000000E+00 -3.51971340E-01
