LiH FCI/sto-6g                                                          
SP        RHF                                                         STO-6G              
Number of atoms                            I                2
Info1-9                                    I   N=           9
          12          10           0           0           0         110
           1           1           2
Charge                                     I                0
Multiplicity                               I                1
Number of electrons                        I                4
Number of alpha electrons                  I                2
Number of beta electrons                   I                2
Number of basis functions                  I                6
Number of independent functions            I                6
Number of point charges in /Mol/           I                0
Number of translation vectors              I                0
Atomic numbers                             I   N=           2
           3           1
Nuclear charges                            R   N=           2
  3.00000000E+00  1.00000000E+00
Current cartesian coordinates              R   N=           6
  0.00000000E+00  0.00000000E+00  0.00000000E+00  0.00000000E+00  0.00000000E+00
  3.01411318E+00
Force Field                                I                0
Int Atom Types                             I   N=           2
           0           0
MM charges                                 R   N=           2
  0.00000000E+00  0.00000000E+00
Integer atomic weights                     I   N=           2
           7           1
Real atomic weights                        R   N=           2
  7.01600450E+00  1.00782504E+00
Atom fragment info                         I   N=           2
           0           0
Atom residue num                           I   N=           2
           0           0
Nuclear spins                              I   N=           2
           3           1
Nuclear ZEff                               R   N=           2
 -1.35000000E+00 -1.00000000E+00
Nuclear ZNuc                               R   N=           2
  3.00000000E+00  1.00000000E+00
Nuclear QMom                               R   N=           2
 -4.01000000E+00  0.00000000E+00
Nuclear GFac                               R   N=           2
  3.25642400E+00  2.79284600E+00
MicOpt                                     I   N=           2
          -1          -1
Number of contracted shells                I                3
Number of primitive shells                 I               18
Pure/Cartesian d shells                    I                0
Pure/Cartesian f shells                    I                0
Highest angular momentum                   I                1
Largest degree of contraction              I                6
Shell types                                I   N=           3
           0          -1           0
Number of primitives per shell             I   N=           3
           6           6           6
Shell to atom map                          I   N=           3
           1           1           2
Primitive exponents                        R   N=          18
  1.67175846E+02  3.06515084E+01  8.57518748E+00  2.94580834E+00  1.14394358E+00
  4.71139139E-01  6.59756398E+00  1.30583009E+00  4.05851019E-01  1.56145516E-01
  6.78141039E-02  3.10841655E-02  3.55232212E+01  6.51314373E+00  1.82214290E+00
  6.25955266E-01  2.43076747E-01  1.00112428E-01
Contraction coefficients                   R   N=          18
  9.16359628E-03  4.93614929E-02  1.68538305E-01  3.70562800E-01  4.16491530E-01
  1.30334084E-01 -1.32527881E-02 -4.69917101E-02 -3.37853715E-02  2.50241786E-01
  5.95117253E-01  2.40706176E-01  9.16359628E-03  4.93614929E-02  1.68538305E-01
  3.70562800E-01  4.16491530E-01  1.30334084E-01
P(S=P) Contraction coefficients            R   N=          18
  0.00000000E+00  0.00000000E+00  0.00000000E+00  0.00000000E+00  0.00000000E+00
  0.00000000E+00  3.75969662E-03  3.76793698E-02  1.73896744E-01  4.18036435E-01
  4.25859548E-01  1.01708296E-01  0.00000000E+00  0.00000000E+00  0.00000000E+00
  0.00000000E+00  0.00000000E+00  0.00000000E+00
Coordinates of each shell                  R   N=           9
  0.00000000E+00  0.00000000E+00  0.00000000E+00  0.00000000E+00  0.00000000E+00
  0.00000000E+00  0.00000000E+00  0.00000000E+00  3.01411318E+00
Constraint Structure                       R   N=           6
  0.00000000E+00  0.00000000E+00  0.00000000E+00  0.00000000E+00  0.00000000E+00
  3.01411318E+00
Num ILSW                                   I              100
ILSW                                       I   N=         100
           0           0           0           0           2           0
           0           0           0           0           0          -1
           0           0           0           0           0           0
           0           0           0           0           0           0
           1           1           0           0           0           0
           0           0      100000           0          -1           0
           0           0           0           0           0           0
           0           0           0           1           0           0
           0           0           1           0           0           0
           0           0           4          41           0           0
           0           0           0           0           0           0
           0           0           0           2           0           0
           0           0           0           0           0           0
           0           0           0           0           0           0
           0           0           0           0           0           0
           0           0           0           0           0           0
           0           0           0           0
Num RLSW                                   I               41
RLSW                                       R   N=          41
  1.00000000E+00  1.00000000E+00  1.00000000E+00  1.00000000E+00  1.00000000E+00
  0.00000000E+00  0.00000000E+00  1.00000000E+00  0.00000000E+00  0.00000000E+00
  0.00000000E+00  0.00000000E+00  1.00000000E+00  0.00000000E+00  0.00000000E+00
  0.00000000E+00  0.00000000E+00  1.00000000E+00  0.00000000E+00  0.00000000E+00
  0.00000000E+00  0.00000000E+00  1.00000000E+00  0.00000000E+00  0.00000000E+00
  0.00000000E+00  0.00000000E+00  1.00000000E+00  0.00000000E+00  0.00000000E+00
  0.00000000E+00  0.00000000E+00  1.00000000E+00  0.00000000E+00  0.00000000E+00
  0.00000000E+00  0.00000000E+00  0.00000000E+00  1.00000000E+00  1.00000000E+00
  0.00000000E+00
MxBond                                     I                1
NBond                                      I   N=           2
           1           1
IBond                                      I   N=           2
           2           1
RBond                                      R   N=           2
  1.00000000E+00  1.00000000E+00
Virial Ratio                               R      1.983650739669834E+00
SCF Energy                                 R     -7.951971538799292E+00
Total Energy                               R     -7.951971538799292E+00
RMS Density                                R      1.276595980849508E-09
External E-field                           R   N=          35
  0.00000000E+00  0.00000000E+00  0.00000000E+00  0.00000000E+00  0.00000000E+00
  0.00000000E+00  0.00000000E+00  0.00000000E+00  0.00000000E+00  0.00000000E+00
  0.00000000E+00  0.00000000E+00  0.00000000E+00  0.00000000E+00  0.00000000E+00
  0.00000000E+00  0.00000000E+00  0.00000000E+00  0.00000000E+00  0.00000000E+00
  0.00000000E+00  0.00000000E+00  0.00000000E+00  0.00000000E+00  0.00000000E+00
  0.00000000E+00  0.00000000E+00  0.00000000E+00  0.00000000E+00  0.00000000E+00
  0.00000000E+00  0.00000000E+00  0.00000000E+00  0.00000000E+00  0.00000000E+00
IOpCl                                      I                0
IROHF                                      I                0
Alpha Orbital Energies                     R   N=           6
 -2.38724142E+00 -2.86261107E-01  7.85881936E-02  1.62662727E-01  1.62662727E-01
  5.49112915E-01
Alpha MO coefficients                      R   N=          36
  9.93849204E-01  2.36804816E-02 -1.08455753E-15  9.21230442E-16 -5.86575734E-03
  3.71224622E-03 -1.58072827E-01  4.45522322E-01 -1.54427371E-16  3.02556336E-16
  3.46323835E-01  5.54936381E-01 -1.99292109E-01  7.98381771E-01  1.05855478E-15
  1.02521851E-15 -6.14809960E-01 -1.31116565E-01 -5.88096031E-19 -7.34073818E-16
  9.50284989E-01 -3.11381503E-01 -1.27937252E-16  1.20486546E-15  3.63234946E-16
 -1.85411744E-15  3.11381503E-01  9.50284989E-01  8.25280228E-16  8.52270152E-16
  8.71463176E-02 -7.11274309E-01 -2.75207196E-15 -3.77656630E-16 -9.77539167E-01
  1.18509418E+00
Total SCF Density                          R   N=          21
  2.02544652E+00 -9.37802903E-02  3.98101808E-01 -2.10695173E-15 -1.88967371E-16
  2.40022569E-30  1.73547641E-15  3.13221563E-16 -2.09170078E-30  1.88041173E-30
 -1.21148132E-01  3.08312190E-01 -9.42402560E-17  1.98757513E-16  2.39949212E-01
 -1.68061900E-01  4.94648905E-01 -1.79447022E-16  3.42638705E-16  3.84331841E-01
  6.15936336E-01
Mulliken Charges                           R   N=           2
 -1.67262858E-03  1.67262858E-03
ONIOM Charges                              I   N=          16
           0           0           0           0           0           0
           0           0           0           0           0           0
           0           0           0           0
ONIOM Multiplicities                       I   N=          16
           1           0           0           0           0           0
           0           0           0           0           0           0
           0           0           0           0
Atom Layers                                I   N=           2
           1           1
Atom Modifiers                             I   N=           2
           0           0
Force Field                                I                0
Int Atom Modified Types                    I   N=           2
           0           0
Link Atoms                                 I   N=           2
           0           0
Atom Modified MM Charges                   R   N=           2
  0.00000000E+00  0.00000000E+00
Link Distances                             R   N=           8
  0.00000000E+00  0.00000000E+00  0.00000000E+00  0.00000000E+00  0.00000000E+00
  0.00000000E+00  0.00000000E+00  0.00000000E+00
Cartesian Gradient                         R   N=           6
  0.00000000E+00  0.00000000E+00  0.00000000E+00  0.00000000E+00  0.00000000E+00
  0.00000000E+00
Dipole Moment                              R   N=           3
  1.45871360E-15 -1.90150613E-15 -1.93384094E+00
Quadrupole Moment                          R   N=           6
  9.19986725E-01  9.19986725E-01 -1.83997345E+00  9.80498507E-30  6.71020136E-16
 -1.36944646E-15
QEq coupling tensors                       R   N=          12
 -2.61958476E-02  0.00000000E+00 -2.61958476E-02  0.00000000E+00  0.00000000E+00
  5.23916952E-02  1.99663247E-02  0.00000000E+00  1.99663247E-02  2.34263662E-17
 -1.92960785E-17 -3.99326494E-02
