H4 square                                                               
SP        RHF                                                         STO-6G              
Number of atoms                            I                4
Info1-9                                    I   N=           9
          13          11           0           0           0         110
           1           1           2
Charge                                     I                0
Multiplicity                               I                1
Number of electrons                        I                4
Number of alpha electrons                  I                2
Number of beta electrons                   I                2
Number of basis functions                  I                4
Number of independent functions            I                4
Number of point charges in /Mol/           I                0
Number of translation vectors              I                0
Atomic numbers                             I   N=           4
           1           1           1           1
Nuclear charges                            R   N=           4
  1.00000000E+00  1.00000000E+00  1.00000000E+00  1.00000000E+00
Current cartesian coordinates              R   N=          12
  0.00000000E+00  0.00000000E+00  0.00000000E+00  0.00000000E+00  2.00000000E+00
  0.00000000E+00  2.00000000E+00  0.00000000E+00  0.00000000E+00  2.00000000E+00
  2.00000000E+00  0.00000000E+00
Force Field                                I                0
Int Atom Types                             I   N=           4
           0           0           0           0
MM charges                                 R   N=           4
  0.00000000E+00  0.00000000E+00  0.00000000E+00  0.00000000E+00
Integer atomic weights                     I   N=           4
           1           1           1           1
Real atomic weights                        R   N=           4
  1.00782504E+00  1.00782504E+00  1.00782504E+00  1.00782504E+00
Atom fragment info                         I   N=           4
           0           0           0           0
Atom residue num                           I   N=           4
           0           0           0           0
Nuclear spins                              I   N=           4
           1           1           1           1
Nuclear ZEff                               R   N=           4
 -1.00000000E+00 -1.00000000E+00 -1.00000000E+00 -1.00000000E+00
Nuclear ZNuc                               R   N=           4
  1.00000000E+00  1.00000000E+00  1.00000000E+00  1.00000000E+00
Nuclear QMom                               R   N=           4
  0.00000000E+00  0.00000000E+00  0.00000000E+00  0.00000000E+00
Nuclear GFac                               R   N=           4
  2.79284600E+00  2.79284600E+00  2.79284600E+00  2.79284600E+00
MicOpt                                     I   N=           4
          -1          -1          -1          -1
Number of contracted shells                I                4
Number of primitive shells                 I               24
Pure/Cartesian d shells                    I                0
Pure/Cartesian f shells                    I                0
Highest angular momentum                   I                0
Largest degree of contraction              I                6
Shell types                                I   N=           4
           0           0           0           0
Number of primitives per shell             I   N=           4
           6           6           6           6
Shell to atom map                          I   N=           4
           1           2           3           4
Primitive exponents                        R   N=          24
  3.55232212E+01  6.51314373E+00  1.82214290E+00  6.25955266E-01  2.43076747E-01
  1.00112428E-01  3.55232212E+01  6.51314373E+00  1.82214290E+00  6.25955266E-01
  2.43076747E-01  1.00112428E-01  3.55232212E+01  6.51314373E+00  1.82214290E+00
  6.25955266E-01  2.43076747E-01  1.00112428E-01  3.55232212E+01  6.51314373E+00
  1.82214290E+00  6.25955266E-01  2.43076747E-01  1.00112428E-01
Contraction coefficients                   R   N=          24
  9.16359628E-03  4.93614929E-02  1.68538305E-01  3.70562800E-01  4.16491530E-01
  1.30334084E-01  9.16359628E-03  4.93614929E-02  1.68538305E-01  3.70562800E-01
  4.16491530E-01  1.30334084E-01  9.16359628E-03  4.93614929E-02  1.68538305E-01
  3.70562800E-01  4.16491530E-01  1.30334084E-01  9.16359628E-03  4.93614929E-02
  1.68538305E-01  3.70562800E-01  4.16491530E-01  1.30334084E-01
Coordinates of each shell                  R   N=          12
  0.00000000E+00  0.00000000E+00  0.00000000E+00  0.00000000E+00  2.00000000E+00
  0.00000000E+00  2.00000000E+00  0.00000000E+00  0.00000000E+00  2.00000000E+00
  2.00000000E+00  0.00000000E+00
Constraint Structure                       R   N=          12
  0.00000000E+00  0.00000000E+00  0.00000000E+00  0.00000000E+00  2.00000000E+00
  0.00000000E+00  2.00000000E+00  0.00000000E+00  0.00000000E+00  2.00000000E+00
  2.00000000E+00  0.00000000E+00
Num ILSW                                   I              100
ILSW                                       I   N=         100
           0           0           0           0           2           0
           0           0           0           0           0          -1
           0           1           0           0           0           0
           0           0           0           0           0           0
           1           1           0           0           0           0
           0           0      100000           0          -1           0
           0           0           0           0           0           0
           0           0           0           1           0           0
           0           0           1           0           0           0
           0           0           4          41           0           0
           0           0           0           0           0           0
           0           0           0           4           0           0
           0           0           0           0           0           0
           0           0           0           0           0           0
           0           0           0           0           0           0
           0           0           0           0           0           0
           0           0           0           0
Num RLSW                                   I               41
RLSW                                       R   N=          41
  1.00000000E+00  1.00000000E+00  1.00000000E+00  1.00000000E+00  1.00000000E+00
  0.00000000E+00  0.00000000E+00  1.00000000E+00  0.00000000E+00  0.00000000E+00
  0.00000000E+00  0.00000000E+00  1.00000000E+00  0.00000000E+00  0.00000000E+00
  0.00000000E+00  0.00000000E+00  1.00000000E+00  0.00000000E+00  0.00000000E+00
  0.00000000E+00  0.00000000E+00  1.00000000E+00  0.00000000E+00  0.00000000E+00
  0.00000000E+00  0.00000000E+00  1.00000000E+00  0.00000000E+00  0.00000000E+00
  0.00000000E+00  0.00000000E+00  1.00000000E+00  0.00000000E+00  0.00000000E+00
  0.00000000E+00  0.00000000E+00  0.00000000E+00  1.00000000E+00  1.00000000E+00
  0.00000000E+00
MxBond                                     I                1
NBond                                      I   N=           4
           0           0           0           0
IBond                                      I   N=           4
           0           0           0           0
RBond                                      R   N=           4
  0.00000000E+00  0.00000000E+00  0.00000000E+00  0.00000000E+00
Virial Ratio                               R      1.612431435680136E+00
SCF Energy                                 R     -1.792712562336217E+00
Total Energy                               R     -1.792712562336217E+00
RMS Density                                R      7.141112530346345E-09
External E-field                           R   N=          35
  0.00000000E+00  0.00000000E+00  0.00000000E+00  0.00000000E+00  0.00000000E+00
  0.00000000E+00  0.00000000E+00  0.00000000E+00  0.00000000E+00  0.00000000E+00
  0.00000000E+00  0.00000000E+00  0.00000000E+00  0.00000000E+00  0.00000000E+00
  0.00000000E+00  0.00000000E+00  0.00000000E+00  0.00000000E+00  0.00000000E+00
  0.00000000E+00  0.00000000E+00  0.00000000E+00  0.00000000E+00  0.00000000E+00
  0.00000000E+00  0.00000000E+00  0.00000000E+00  0.00000000E+00  0.00000000E+00
  0.00000000E+00  0.00000000E+00  0.00000000E+00  0.00000000E+00  0.00000000E+00
IOpCl                                      I                0
IROHF                                      I                0
Alpha Orbital Energies                     R   N=           4
 -6.61409897E-01 -1.99285696E-01  1.94565427E-01  7.47092806E-01
Alpha MO coefficients                      R   N=          16
  3.38311478E-01  3.38311478E-01  3.38311478E-01  3.38311478E-01  5.80473690E-01
  5.80473690E-01 -5.80473690E-01 -5.80473690E-01  5.80473690E-01 -5.80473690E-01
  5.80473690E-01 -5.80473690E-01  8.67987680E-01 -8.67987680E-01 -8.67987680E-01
  8.67987680E-01
Total SCF Density                          R   N=          10
  9.02808721E-01  9.02808721E-01  9.02808721E-01 -4.44990096E-01 -4.44990096E-01
  9.02808721E-01 -4.44990096E-01 -4.44990096E-01  9.02808721E-01  9.02808721E-01
Mulliken Charges                           R   N=           4
 -8.45157277E-15  5.44009282E-15  5.88418203E-15 -7.43849426E-15
ONIOM Charges                              I   N=          16
           0           0           0           0           0           0
           0           0           0           0           0           0
           0           0           0           0
ONIOM Multiplicities                       I   N=          16
           1           0           0           0           0           0
           0           0           0           0           0           0
           0           0           0           0
Atom Layers                                I   N=           4
           1           1           1           1
Atom Modifiers                             I   N=           4
           0           0           0           0
Force Field                                I                0
Int Atom Modified Types                    I   N=           4
           0           0           0           0
Link Atoms                                 I   N=           4
           0           0           0           0
Atom Modified MM Charges                   R   N=           4
  0.00000000E+00  0.00000000E+00  0.00000000E+00  0.00000000E+00
Link Distances                             R   N=          16
  0.00000000E+00  0.00000000E+00  0.00000000E+00  0.00000000E+00  0.00000000E+00
  0.00000000E+00  0.00000000E+00  0.00000000E+00  0.00000000E+00  0.00000000E+00
  0.00000000E+00  0.00000000E+00  0.00000000E+00  0.00000000E+00  0.00000000E+00
  0.00000000E+00
Cartesian Gradient                         R   N=          12
  0.00000000E+00  0.00000000E+00  0.00000000E+00  0.00000000E+00  0.00000000E+00
  0.00000000E+00  0.00000000E+00  0.00000000E+00  0.00000000E+00  0.00000000E+00
  0.00000000E+00  0.00000000E+00
Dipole Moment                              R   N=           3
 -2.66453526E-15 -3.55271368E-15  0.00000000E+00
Quadrupole Moment                          R   N=           6
 -1.00814358E+00  9.89323583E-01  1.88200001E-02 -3.90798505E-14  0.00000000E+00
  0.00000000E+00
QEq coupling tensors                       R   N=          24
 -1.23277791E-01 -2.59959919E-02  6.00319170E-02  0.00000000E+00  0.00000000E+00
  6.32458738E-02 -1.23277791E-01  2.59959919E-02  6.00319170E-02  0.00000000E+00
  0.00000000E+00  6.32458738E-02 -1.23277791E-01  2.59959919E-02  6.00319170E-02
  0.00000000E+00  0.00000000E+00  6.32458738E-02 -1.23277791E-01 -2.59959919E-02
  6.00319170E-02  0.00000000E+00  0.00000000E+00  6.32458738E-02
