LiH FCI/6-31g                                                           
SP        RHF                                                         6-31G               
Number of atoms                            I                2
Info1-9                                    I   N=           9
          12          10           0           0           0         110
           1           1           2
Charge                                     I                0
Multiplicity                               I                1
Number of electrons                        I                4
Number of alpha electrons                  I                2
Number of beta electrons                   I                2
Number of basis functions                  I               11
Number of independent functions            I               11
Number of point charges in /Mol/           I                0
Number of translation vectors              I                0
Atomic numbers                             I   N=           2
           3           1
Nuclear charges                            R   N=           2
  3.00000000E+00  1.00000000E+00
Current cartesian coordinates              R   N=           6
  0.00000000E+00  0.00000000E+00  0.00000000E+00  0.00000000E+00  0.00000000E+00
  3.01411318E+00
Force Field                                I                0
Int Atom Types                             I   N=           2
           0           0
MM charges                                 R   N=           2
  0.00000000E+00  0.00000000E+00
Integer atomic weights                     I   N=           2
           7           1
Real atomic weights                        R   N=           2
  7.01600450E+00  1.00782504E+00
Atom fragment info                         I   N=           2
           0           0
Atom residue num                           I   N=           2
           0           0
Nuclear spins                              I   N=           2
           3           1
Nuclear ZEff                               R   N=           2
 -1.35000000E+00 -1.00000000E+00
Nuclear ZNuc                               R   N=           2
  3.00000000E+00  1.00000000E+00
Nuclear QMom                               R   N=           2
 -4.01000000E+00  0.00000000E+00
Nuclear GFac                               R   N=           2
  3.25642400E+00  2.79284600E+00
MicOpt                                     I   N=           2
          -1          -1
Number of contracted shells                I                5
Number of primitive shells                 I               14
Pure/Cartesian d shells                    I                1
Pure/Cartesian f shells                    I                0
Highest angular momentum                   I                1
Largest degree of contraction              I                6
Shell types                                I   N=           5
           0          -1          -1           0           0
Number of primitives per shell             I   N=           5
           6           3           1           3           1
Shell to atom map                          I   N=           5
           1           1           1           2           2
Primitive exponents                        R   N=          14
  6.42418915E+02  9.67985153E+01  2.20911212E+01  6.20107025E+00  1.93511768E+00
  6.36735789E-01  2.32491841E+00  6.32430356E-01  7.90534348E-02  3.59619717E-02
  1.87311370E+01  2.82539436E+00  6.40121692E-01  1.61277759E-01
Contraction coefficients                   R   N=          14
  2.14260781E-03  1.62088715E-02  7.73155725E-02  2.45786052E-01  4.70189004E-01
  3.45470845E-01 -3.50917457E-02 -1.91232843E-01  1.08398779E+00  1.00000000E+00
  3.34946043E-02  2.34726953E-01  8.13757326E-01  1.00000000E+00
P(S=P) Contraction coefficients            R   N=          14
  0.00000000E+00  0.00000000E+00  0.00000000E+00  0.00000000E+00  0.00000000E+00
  0.00000000E+00  8.94150804E-03  1.41009464E-01  9.45363695E-01  1.00000000E+00
  0.00000000E+00  0.00000000E+00  0.00000000E+00  0.00000000E+00
Coordinates of each shell                  R   N=          15
  0.00000000E+00  0.00000000E+00  0.00000000E+00  0.00000000E+00  0.00000000E+00
  0.00000000E+00  0.00000000E+00  0.00000000E+00  0.00000000E+00  0.00000000E+00
  0.00000000E+00  3.01411318E+00  0.00000000E+00  0.00000000E+00  3.01411318E+00
Constraint Structure                       R   N=           6
  0.00000000E+00  0.00000000E+00  0.00000000E+00  0.00000000E+00  0.00000000E+00
  3.01411318E+00
Num ILSW                                   I              100
ILSW                                       I   N=         100
           0           1           0           0           2           0
           0           0           0           0           0          -1
           0           0           0           0           0           0
           0           0           0           0           0           0
           1           1           0           0           0           0
           0           0      100000           0          -1           0
           0           0           0           0           0           0
           0           0           0           1           0           0
           0           0           1           0           0           0
           0           0           4          41           0           0
           0           0           0           0           0           0
           0           0           0           2           0           0
           0           0           0           0           0           0
           0           0           0           0           0           0
           0           0           0           0           0           0
           0           0           0           0           0           0
           0           0           0           0
Num RLSW                                   I               41
RLSW                                       R   N=          41
  1.00000000E+00  1.00000000E+00  1.00000000E+00  1.00000000E+00  1.00000000E+00
  0.00000000E+00  0.00000000E+00  1.00000000E+00  0.00000000E+00  0.00000000E+00
  0.00000000E+00  0.00000000E+00  1.00000000E+00  0.00000000E+00  0.00000000E+00
  0.00000000E+00  0.00000000E+00  1.00000000E+00  0.00000000E+00  0.00000000E+00
  0.00000000E+00  0.00000000E+00  1.00000000E+00  0.00000000E+00  0.00000000E+00
  0.00000000E+00  0.00000000E+00  1.00000000E+00  0.00000000E+00  0.00000000E+00
  0.00000000E+00  0.00000000E+00  1.00000000E+00  0.00000000E+00  0.00000000E+00
  0.00000000E+00  0.00000000E+00  0.00000000E+00  1.00000000E+00  1.00000000E+00
  0.00000000E+00
MxBond                                     I                1
NBond                                      I   N=           2
           1           1
IBond                                      I   N=           2
           2           1
RBond                                      R   N=           2
  1.00000000E+00  1.00000000E+00
Virial Ratio                               R      1.996746375673904E+00
SCF Energy                                 R     -7.979268949397801E+00
Total Energy                               R     -7.979268949397801E+00
RMS Density                                R      1.049841270259424E-09
External E-field                           R   N=          35
  0.00000000E+00  0.00000000E+00  0.00000000E+00  0.00000000E+00  0.00000000E+00
  0.00000000E+00  0.00000000E+00  0.00000000E+00  0.00000000E+00  0.00000000E+00
  0.00000000E+00  0.00000000E+00  0.00000000E+00  0.00000000E+00  0.00000000E+00
  0.00000000E+00  0.00000000E+00  0.00000000E+00  0.00000000E+00  0.00000000E+00
  0.00000000E+00  0.00000000E+00  0.00000000E+00  0.00000000E+00  0.00000000E+00
  0.00000000E+00  0.00000000E+00  0.00000000E+00  0.00000000E+00  0.00000000E+00
  0.00000000E+00  0.00000000E+00  0.00000000E+00  0.00000000E+00  0.00000000E+00
IOpCl                                      I                0
IROHF                                      I                0
Alpha Orbital Energies                     R   N=          11
 -2.45329900E+00 -3.00713680E-01  9.37630440E-03  6.02160940E-02  6.02160940E-02
  1.44871939E-01  2.00528598E-01  2.21893211E-01  2.21893211E-01  3.59940181E-01
  1.31826364E+00
Alpha MO coefficients                      R   N=         121
  9.98665587E-01  1.61751031E-02 -1.18129301E-15 -3.83647876E-16 -9.29545834E-03
 -8.42787099E-03  9.57785753E-16  3.19715486E-16  5.34585663E-03  2.85168343E-03
  3.03257266E-03 -1.31827198E-01  2.17994458E-01 -2.91180706E-16 -1.28293206E-16
  2.27777639E-01  1.48722011E-01  2.95078260E-16  1.54139704E-16 -3.60281088E-03
  2.91885079E-01  4.35602250E-01 -1.38832959E-01 -1.52207160E-01  2.08981486E-16
  1.26806635E-16 -1.82720803E-01  8.93238789E-01 -1.77517873E-15  8.14058589E-16
 -4.99337203E-01 -5.71458045E-02 -6.69025642E-02  9.34905698E-17 -4.56933334E-16
 -1.58428317E-03  1.24445806E-02  4.79712453E-16 -2.72015361E-16 -1.25013569E-01
  9.81984457E-01 -1.11806553E-16  6.62065265E-17  1.68515046E-16 -1.71851885E-16
  1.01521256E-15  1.24445806E-02  1.58428317E-03 -8.70121838E-16  4.26801488E-16
  9.81984457E-01  1.25013569E-01 -8.49955809E-17 -1.52513822E-16 -3.06967091E-16
 -4.71039705E-02 -1.13975771E-01  2.12883304E-15  6.11809789E-16 -6.55308338E-01
  7.55134967E-01 -2.00434570E-15 -3.89488046E-16  1.36750407E+00 -9.26850302E-02
 -5.64979972E-01 -3.67987197E-02 -1.91147979E+00  6.96556038E-16 -1.91861945E-15
  9.47674446E-01  1.95887558E+00  1.08250178E-16  1.68680879E-15 -5.22440720E-01
  1.10658791E-02 -3.02210777E-01  6.96496735E-17 -8.02903028E-16  5.32288202E-01
  1.58746132E+00  1.21374043E-15 -5.57516459E-17 -4.29310821E-01 -1.28034835E+00
 -1.29940754E-15  4.87505167E-18  4.06805288E-16  3.37717193E-17  9.56592354E-16
  1.58746132E+00 -5.32288202E-01 -7.40422667E-16 -2.29981506E-15 -1.28034835E+00
  4.29310821E-01 -7.57911086E-16  1.27370357E-17  1.41514424E-15  8.22125992E-02
  1.67585701E+00  1.05987652E-15 -1.80880131E-16  1.77284781E+00 -6.48581153E-01
 -1.36080383E-15  2.34446987E-16 -6.41960411E-01 -7.99127908E-02 -1.49015076E+00
 -1.18414522E-01 -3.38964505E-01 -5.85366822E-16 -5.46674524E-16 -3.34014695E-01
 -2.50705290E-01  4.45347370E-16  4.16915135E-16 -2.14111755E-01 -1.39778487E+00
  1.78751583E+00
Total SCF Density                          R   N=          66
  2.02942273E+00 -2.51681595E-02  9.55664356E-02 -2.28266228E-15 -1.65166633E-16
  2.96047875E-30 -7.32446795E-16 -6.83455039E-17  9.81114120E-31  3.27289679E-31
 -7.86206843E-02  9.90078158E-02 -1.10687587E-16 -5.13122815E-17  1.03938116E-01
 -5.60444615E-02  6.45685052E-02 -6.66983905E-17 -3.16933778E-17  6.79077789E-02
  4.43785314E-02  1.83521666E-15  1.59635417E-16 -2.43469342E-30 -8.10618012E-31
  1.16618343E-16  7.16250752E-17  2.00884946E-30  5.97938097E-16  7.75460643E-17
 -8.45120353E-31 -2.84866488E-31  6.42753515E-17  4.04588918E-17  7.03404427E-31
  2.51954081E-31  1.16273430E-02 -1.39784605E-03 -1.05319081E-17 -3.17742076E-18
 -1.74066389E-03 -1.16174294E-03  8.11414830E-18  2.30763390E-18  8.31168587E-05
 -7.12610277E-02  1.27350912E-01 -1.76719954E-16 -7.70818299E-17  1.32916772E-01
  8.67714047E-02  1.77720486E-16  9.18056138E-17 -2.07272409E-03  1.70410062E-01
 -1.08791396E-01  1.90015857E-01 -2.60842655E-16 -1.14096499E-16  1.98384525E-01
  1.29516169E-01  2.62882618E-16  1.36226324E-16 -3.10636166E-03  2.54308890E-01
  3.79517033E-01
Mulliken Charges                           R   N=           2
  2.62672640E-01 -2.62672640E-01
ONIOM Charges                              I   N=          16
           0           0           0           0           0           0
           0           0           0           0           0           0
           0           0           0           0
ONIOM Multiplicities                       I   N=          16
           1           0           0           0           0           0
           0           0           0           0           0           0
           0           0           0           0
Atom Layers                                I   N=           2
           1           1
Atom Modifiers                             I   N=           2
           0           0
Force Field                                I                0
Int Atom Modified Types                    I   N=           2
           0           0
Link Atoms                                 I   N=           2
           0           0
Atom Modified MM Charges                   R   N=           2
  0.00000000E+00  0.00000000E+00
Link Distances                             R   N=           8
  0.00000000E+00  0.00000000E+00  0.00000000E+00  0.00000000E+00  0.00000000E+00
  0.00000000E+00  0.00000000E+00  0.00000000E+00
Cartesian Gradient                         R   N=           6
  0.00000000E+00  0.00000000E+00  0.00000000E+00  0.00000000E+00  0.00000000E+00
  0.00000000E+00
Dipole Moment                              R   N=           3
  5.71525080E-16  9.57081989E-17 -2.33230902E+00
Quadrupole Moment                          R   N=           6
  1.59271546E+00  1.59271546E+00 -3.18543092E+00 -4.14448565E-30 -1.51329568E-16
 -1.89099915E-16
QEq coupling tensors                       R   N=          12
 -1.36359063E-02  0.00000000E+00 -1.36359063E-02  0.00000000E+00  0.00000000E+00
  2.72718126E-02  3.56691153E-02  0.00000000E+00  3.56691153E-02  1.69072460E-17
  0.00000000E+00 -7.13382307E-02
